title="response"
 variables=t,d1,d2,d3,d4,d5,d6,wav
zone
      0.000000  3.410000E-01  0.000000E+00 -4.999999E-03  0.000000E+00  1.900000E-02  0.000000E+00  0.000000E+00
      0.050000  3.409966E-01  1.421028E-08 -4.931945E-03  5.742700E-08  1.898708E-02 -2.874042E-10 -1.437454E-07
      0.100000  3.409882E-01  4.837164E-08 -4.760996E-03  1.984147E-07  1.895519E-02 -7.913822E-10 -4.954413E-07
      0.150000  3.409748E-01  1.003676E-07 -4.486017E-03  4.192051E-07  1.890495E-02 -1.171602E-09 -1.113538E-06
      0.200000  3.409564E-01  1.682070E-07 -4.106056E-03  7.160886E-07  1.883699E-02 -1.122682E-09 -1.946930E-06
      0.250000  3.409338E-01  2.473828E-07 -3.638644E-03  1.074032E-06  1.875452E-02 -3.852597E-10 -3.011049E-06
      0.300000  3.409066E-01  3.380625E-07 -3.064875E-03  1.500268E-06  1.865574E-02  1.468958E-09 -4.216774E-06
      0.350000  3.408744E-01  4.388481E-07 -2.385322E-03  1.993084E-06  1.854089E-02  4.643668E-09 -5.604756E-06
      0.400000  3.408375E-01  5.472191E-07 -1.599416E-03  2.547809E-06  1.841081E-02  9.545191E-09 -7.111703E-06
      0.450000  3.407955E-01  6.622880E-07 -7.073507E-04  3.161810E-06  1.826613E-02  1.622075E-08 -8.703371E-06
      0.500000  3.407488E-01  7.819858E-07  2.905503E-04  3.831435E-06  1.810749E-02  2.496630E-08 -1.034122E-05
      0.550000  3.406973E-01  9.068215E-07  1.395065E-03  4.554321E-06  1.793563E-02  3.552531E-08 -1.201035E-05
      0.600000  3.406405E-01  1.032577E-06  2.603173E-03  5.327276E-06  1.775112E-02  4.869760E-08 -1.360832E-05
      0.650000  3.405795E-01  1.161396E-06  3.916409E-03  6.148977E-06  1.755467E-02  6.386426E-08 -1.514033E-05
      0.700000  3.405137E-01  1.289930E-06  5.331568E-03  7.016587E-06  1.734688E-02  8.166298E-08 -1.652825E-05
      0.750000  3.404431E-01  1.418947E-06  6.848384E-03  7.928740E-06  1.712836E-02  1.017331E-07 -1.774288E-05
      0.800000  3.403683E-01  1.547688E-06  8.464918E-03  8.883674E-06  1.689974E-02  1.241582E-07 -1.868802E-05
      0.850000  3.402882E-01  1.676355E-06  1.017946E-02  9.879950E-06  1.666160E-02  1.486655E-07 -1.933789E-05
      0.900000  3.402042E-01  1.805170E-06  1.198996E-02  1.091681E-05  1.641454E-02  1.751270E-07 -1.966241E-05
      0.950000  3.401146E-01  1.934141E-06  1.389422E-02  1.199248E-05  1.615910E-02  2.032869E-07 -1.959729E-05
      1.000000  3.400221E-01  2.064471E-06  1.588983E-02  1.310655E-05  1.589584E-02  2.327330E-07 -1.910184E-05
      1.050000  3.399229E-01  2.197595E-06  1.797650E-02  1.425665E-05  1.562552E-02  2.628358E-07 -1.815048E-05
      1.100000  3.398209E-01  2.332226E-06  2.014700E-02  1.544221E-05  1.534864E-02  2.936323E-07 -1.668484E-05
      1.150000  3.397141E-01  2.473402E-06  2.240368E-02  1.666426E-05  1.506553E-02  3.238571E-07 -1.469496E-05
      1.200000  3.396025E-01  2.619422E-06  2.473907E-02  1.792031E-05  1.477690E-02  3.534590E-07 -1.214037E-05
      1.250000  3.394861E-01  2.774692E-06  2.715245E-02  1.921227E-05  1.448293E-02  3.812758E-07 -8.992813E-06
      1.300000  3.393660E-01  2.940059E-06  2.963951E-02  2.053780E-05  1.418420E-02  4.066312E-07 -5.223320E-06
      1.350000  3.392420E-01  3.118485E-06  3.219672E-02  2.189733E-05  1.388109E-02  4.285278E-07 -8.014393E-07
      1.400000  3.391123E-01  3.312066E-06  3.482029E-02  2.328957E-05  1.357399E-02  4.459877E-07  4.309655E-06
      1.450000  3.389797E-01  3.524417E-06  3.750630E-02  2.471472E-05  1.326327E-02  4.577712E-07  1.015012E-05
      1.500000  3.388424E-01  3.757826E-06  4.025067E-02  2.617206E-05  1.294928E-02  4.628000E-07  1.676492E-05
      1.550000  3.387012E-01  4.014842E-06  4.305193E-02  2.765714E-05  1.263269E-02  4.600109E-07  2.420512E-05
      1.600000  3.385563E-01  4.297592E-06  4.590012E-02  2.916834E-05  1.231426E-02  4.477760E-07  3.253704E-05
      1.650000  3.384056E-01  4.613215E-06  4.879817E-02  3.070925E-05  1.199324E-02  4.244706E-07  4.180838E-05
      1.700000  3.382511E-01  4.962144E-06  5.173561E-02  3.227297E-05  1.167099E-02  3.886531E-07  5.210726E-05
      1.750000  3.380947E-01  5.351458E-06  5.471171E-02  3.386404E-05  1.134673E-02  3.384019E-07  6.349679E-05
      1.800000  3.379345E-01  5.783602E-06  5.772050E-02  3.547778E-05  1.102118E-02  2.722237E-07  7.604944E-05
      1.850000  3.377686E-01  6.262720E-06  6.075741E-02  3.711272E-05  1.069446E-02  1.883679E-07  8.983610E-05
      1.900000  3.375988E-01  6.792888E-06  6.381771E-02  3.876675E-05  1.036678E-02  8.507543E-08  1.049420E-04
      1.950000  3.374271E-01  7.378227E-06  6.689654E-02  4.043735E-05  1.003830E-02 -3.945579E-08  1.213842E-04
      2.000000  3.372517E-01  8.023054E-06  6.998903E-02  4.212205E-05  9.709171E-03 -1.871104E-07  1.392474E-04
      2.050000  3.370724E-01  8.727900E-06  7.309262E-02  4.381294E-05  9.379884E-03 -3.586563E-07  1.585351E-04
      2.100000  3.368893E-01  9.498075E-06  7.619709E-02  4.550542E-05  9.051953E-03 -5.572408E-07  1.792503E-04
      2.150000  3.367023E-01  1.034157E-05  7.930502E-02  4.720370E-05  8.722936E-03 -7.843693E-07  2.014003E-04
      2.200000  3.365116E-01  1.125808E-05  8.240540E-02  4.889524E-05  8.395448E-03 -1.042038E-06  2.248745E-04
      2.250000  3.363190E-01  1.225763E-05  8.549761E-02  5.058517E-05  8.067408E-03 -1.332643E-06  2.496534E-04
      2.300000  3.361225E-01  1.334040E-05  8.857523E-02  5.226372E-05  7.739872E-03 -1.657433E-06  2.755917E-04
      2.350000  3.359222E-01  1.451138E-05  9.163366E-02  5.392753E-05  7.412750E-03 -2.018282E-06  3.025418E-04
      2.400000  3.357201E-01  1.577380E-05  9.466814E-02  5.557080E-05  7.086109E-03 -2.416796E-06  3.303638E-04
      2.450000  3.355141E-01  1.713100E-05  9.767398E-02  5.718788E-05  6.760005E-03 -2.854499E-06  3.587704E-04
      2.500000  3.353043E-01  1.858671E-05  1.006465E-01  5.877311E-05  6.434485E-03 -3.332930E-06  3.876060E-04
      2.550000  3.350906E-01  2.013576E-05  1.035823E-01  6.031383E-05  6.109794E-03 -3.851595E-06  4.165722E-04
      2.600000  3.348751E-01  2.178950E-05  1.064734E-01  6.180225E-05  5.788436E-03 -4.414681E-06  4.453921E-04
      2.650000  3.346596E-01  2.354692E-05  1.093212E-01  6.323903E-05  5.466249E-03 -5.021030E-06  4.737771E-04
      2.700000  3.344383E-01  2.541201E-05  1.121167E-01  6.460745E-05  5.147274E-03 -5.673419E-06  5.014349E-04
      2.750000  3.342133E-01  2.738953E-05  1.148593E-01  6.590990E-05  4.828200E-03 -6.372256E-06  5.281231E-04
      2.800000  3.339882E-01  2.947833E-05  1.175436E-01  6.713265E-05  4.510507E-03 -7.118007E-06  5.535112E-04
      2.850000  3.337593E-01  3.168019E-05  1.201657E-01  6.826807E-05  4.193979E-03 -7.911223E-06  5.773306E-04
      2.900000  3.335247E-01  3.399570E-05  1.227219E-01  6.930697E-05  3.878658E-03 -8.752196E-06  5.993349E-04
      2.950000  3.332920E-01  3.642520E-05  1.252086E-01  7.024030E-05  3.564573E-03 -9.640982E-06  6.193015E-04
      3.000000  3.330536E-01  3.896837E-05  1.276220E-01  7.105755E-05  3.251762E-03 -1.057751E-05  6.370862E-04
      3.050000  3.328152E-01  4.161540E-05  1.299586E-01  7.174944E-05  2.940261E-03 -1.155939E-05  6.524266E-04
      3.100000  3.325710E-01  4.438113E-05  1.322143E-01  7.229733E-05  2.633495E-03 -1.259128E-05  6.652914E-04
      3.150000  3.323250E-01  4.724854E-05  1.343890E-01  7.270067E-05  2.326000E-03 -1.366665E-05  6.755281E-04
      3.200000  3.320770E-01  5.022887E-05  1.364774E-01  7.293864E-05  2.023012E-03 -1.478988E-05  6.830670E-04
      3.250000  3.318291E-01  5.331388E-05  1.384792E-01  7.300804E-05  1.720368E-03 -1.595683E-05  6.879004E-04
      3.300000  3.315773E-01  5.650210E-05  1.403906E-01  7.289448E-05  1.419928E-03 -1.716736E-05  6.899059E-04
      3.350000  3.313217E-01  5.979023E-05  1.422097E-01  7.258733E-05  1.121461E-03 -1.841991E-05  6.891511E-04
      3.400000  3.310623E-01  6.317498E-05  1.439340E-01  7.207526E-05  8.250597E-04 -1.971311E-05  6.855718E-04
      3.450000  3.307991E-01  6.665212E-05  1.455618E-01  7.134660E-05  5.308112E-04 -2.104515E-05  6.791463E-04
      3.500000  3.305397E-01  7.021771E-05  1.470910E-01  7.039034E-05  2.388128E-04 -2.241440E-05  6.698764E-04
      3.550000  3.302765E-01  7.385761E-05  1.485183E-01  6.919805E-05 -5.105055E-05 -2.381635E-05  6.576290E-04
      3.600000  3.300056E-01  7.759355E-05  1.498447E-01  6.775285E-05 -3.347583E-04 -2.525806E-05  6.423969E-04
      3.650000  3.297348E-01  8.138411E-05  1.510679E-01  6.604278E-05 -6.183543E-04 -2.672494E-05  6.240266E-04
      3.700000  3.294601E-01  8.525636E-05  1.521878E-01  6.405664E-05 -8.959722E-04 -2.822631E-05  6.023702E-04
      3.750000  3.291855E-01  8.918197E-05  1.532039E-01  6.177992E-05 -1.172053E-03 -2.975175E-05  5.772421E-04
      3.800000  3.289108E-01  9.316405E-05  1.541152E-01  5.920368E-05 -1.444532E-03 -3.130241E-05  5.484223E-04
      3.850000  3.286247E-01  9.719544E-05  1.549212E-01  5.631668E-05 -1.713570E-03 -3.287555E-05  5.156850E-04
      3.900000  3.283424E-01  1.012700E-04  1.556219E-01  5.310774E-05 -1.978986E-03 -3.446905E-05  4.787248E-04
      3.950000  3.280563E-01  1.053817E-04  1.562170E-01  4.956681E-05 -2.240604E-03 -3.608071E-05  4.372323E-04
      4.000000  3.277664E-01  1.095238E-04  1.567069E-01  4.568244E-05 -2.498232E-03 -3.770833E-05  3.909706E-04
      4.050000  3.274727E-01  1.136794E-04  1.570885E-01  4.145060E-05 -2.752081E-03 -3.934520E-05  3.395966E-04
      4.100000  3.271790E-01  1.178866E-04  1.573681E-01  3.686111E-05 -2.998012E-03 -4.100630E-05  2.828711E-04
      4.150000  3.268814E-01  1.220704E-04  1.575410E-01  3.189194E-05 -3.241857E-03 -4.266515E-05  2.205845E-04
      4.200000  3.265800E-01  1.262873E-04  1.576127E-01  2.654660E-05 -3.477840E-03 -4.434218E-05  1.525641E-04
      4.250000  3.262749E-01  1.304821E-04  1.575822E-01  2.080132E-05 -3.710097E-03 -4.601892E-05  7.872783E-05
      4.300000  3.259697E-01  1.346689E-04  1.574512E-01  1.465608E-05 -3.936608E-03 -4.770029E-05 -9.154795E-07
      4.350000  3.256569E-01  1.388366E-04  1.572209E-01  8.100985E-06 -4.157426E-03 -4.938317E-05 -8.624909E-05
      4.400000  3.253441E-01  1.429786E-04  1.568932E-01  1.129327E-06 -4.372305E-03 -5.106580E-05 -1.770432E-04
      4.450000  3.250275E-01  1.470877E-04  1.564696E-01 -6.265754E-06 -4.580991E-03 -5.274641E-05 -2.729246E-04
      4.500000  3.247070E-01  1.511556E-04  1.559521E-01 -1.409108E-05 -4.783225E-03 -5.442289E-05 -3.734092E-04
      4.550000  3.243828E-01  1.551647E-04  1.553389E-01 -2.234124E-05 -4.979256E-03 -5.608701E-05 -4.778528E-04
      4.600000  3.240547E-01  1.591668E-04  1.546400E-01 -3.102623E-05 -5.165369E-03 -5.776169E-05 -5.854850E-04
      4.650000  3.237267E-01  1.630548E-04  1.538491E-01 -4.015938E-05 -5.346482E-03 -5.940809E-05 -6.954275E-04
      4.700000  3.233910E-01  1.669111E-04  1.529760E-01 -4.973236E-05 -5.517620E-03 -6.105764E-05 -8.066191E-04
      4.750000  3.230515E-01  1.706536E-04  1.520191E-01 -5.976280E-05 -5.682161E-03 -6.268269E-05 -9.179906E-04
      4.800000  3.227081E-01  1.743045E-04  1.509825E-01 -7.024314E-05 -5.838374E-03 -6.429133E-05 -1.028314E-03
      4.850000  3.223648E-01  1.778472E-04  1.498689E-01 -8.117436E-05 -5.986238E-03 -6.587871E-05 -1.136325E-03
      4.900000  3.220177E-01  1.812714E-04  1.486811E-01 -9.255580E-05 -6.125492E-03 -6.744206E-05 -1.240728E-03
      4.950000  3.216591E-01  1.845659E-04  1.474223E-01 -1.043842E-04 -6.255874E-03 -6.897807E-05 -1.340253E-03
      5.000000  3.213005E-01  1.877188E-04  1.460957E-01 -1.166559E-04 -6.377127E-03 -7.048323E-05 -1.433543E-03
      5.050000  3.209419E-01  1.907225E-04  1.447004E-01 -1.293538E-04 -6.489484E-03 -7.195226E-05 -1.519446E-03
      5.100000  3.205757E-01  1.936098E-04  1.432490E-01 -1.424843E-04 -6.590184E-03 -7.340198E-05 -1.596769E-03
      5.150001  3.202057E-01  1.962688E-04  1.417337E-01 -1.560332E-04 -6.682664E-03 -7.478923E-05 -1.664475E-03
      5.200000  3.198318E-01  1.987786E-04  1.401675E-01 -1.699916E-04 -6.763399E-03 -7.614493E-05 -1.721648E-03
      5.250000  3.194504E-01  2.010405E-04  1.385478E-01 -1.843531E-04 -6.834664E-03 -7.743342E-05 -1.767576E-03
      5.300000  3.190689E-01  2.030793E-04  1.368804E-01 -1.990993E-04 -6.895255E-03 -7.866286E-05 -1.801588E-03
      5.350000  3.186798E-01  2.048712E-04  1.351686E-01 -2.142157E-04 -6.945136E-03 -7.982444E-05 -1.823364E-03
      5.400000  3.182907E-01  2.064018E-04  1.334159E-01 -2.296855E-04 -6.984103E-03 -8.091227E-05 -1.832656E-03
      5.450000  3.178902E-01  2.076539E-04  1.316262E-01 -2.454894E-04 -7.011974E-03 -8.191923E-05 -1.829442E-03
      5.500000  3.174896E-01  2.086118E-04  1.298031E-01 -2.616073E-04 -7.028569E-03 -8.283855E-05 -1.813943E-03
      5.550001  3.170815E-01  2.092872E-04  1.279471E-01 -2.780227E-04 -7.034095E-03 -8.367311E-05 -1.786424E-03
      5.600000  3.166733E-01  2.096786E-04  1.260708E-01 -2.947158E-04 -7.027095E-03 -8.442409E-05 -1.747500E-03
      5.650001  3.162575E-01  2.096890E-04  1.241661E-01 -3.116451E-04 -7.009240E-03 -8.504790E-05 -1.697767E-03
      5.700000  3.158379E-01  2.093824E-04  1.222470E-01 -3.287961E-04 -6.978844E-03 -8.557139E-05 -1.638110E-03
      5.750000  3.154106E-01  2.086562E-04  1.203102E-01 -3.461273E-04 -6.936935E-03 -8.595007E-05 -1.569400E-03
      5.800000  3.149834E-01  2.075400E-04  1.183619E-01 -3.636140E-04 -6.883006E-03 -8.619428E-05 -1.492665E-03
      5.850000  3.145447E-01  2.060107E-04  1.164055E-01 -3.812246E-04 -6.817050E-03 -8.629257E-05 -1.408888E-03
      5.900001  3.141060E-01  2.040542E-04  1.144446E-01 -3.989265E-04 -6.739014E-03 -8.623692E-05 -1.319202E-03
      5.950000  3.136597E-01  2.016579E-04  1.124828E-01 -4.166871E-04 -6.648857E-03 -8.601980E-05 -1.224643E-03
      6.000000  3.132095E-01  1.988094E-04  1.105236E-01 -4.344718E-04 -6.546553E-03 -8.563347E-05 -1.126261E-03
      6.050001  3.127556E-01  1.955328E-04  1.085683E-01 -4.522686E-04 -6.432297E-03 -8.508731E-05 -1.025054E-03
      6.100000  3.122978E-01  1.918296E-04  1.066281E-01 -4.700441E-04 -6.306102E-03 -8.438404E-05 -9.219551E-04
      6.150001  3.118324E-01  1.876070E-04  1.046951E-01 -4.877264E-04 -6.167817E-03 -8.347080E-05 -8.178231E-04
      6.200000  3.113594E-01  1.829436E-04  1.027824E-01 -5.053126E-04 -6.017755E-03 -8.238771E-05 -7.134347E-04
      6.250000  3.108864E-01  1.777384E-04  1.008860E-01 -5.227275E-04 -5.855710E-03 -8.108024E-05 -6.094447E-04
      6.300000  3.104057E-01  1.720375E-04  9.901197E-02 -5.399535E-04 -5.681944E-03 -7.956911E-05 -5.064286E-04
      6.350000  3.099251E-01  1.658291E-04  9.716281E-02 -5.569512E-04 -5.496545E-03 -7.784586E-05 -4.048726E-04
      6.400001  3.094330E-01  1.591129E-04  9.534151E-02 -5.736853E-04 -5.299661E-03 -7.590782E-05 -3.051729E-04
      6.450000  3.089447E-01  1.518910E-04  9.355093E-02 -5.901202E-04 -5.091450E-03 -7.375320E-05 -2.076597E-04
      6.500000  3.084412E-01  1.441663E-04  9.179382E-02 -6.062216E-04 -4.872093E-03 -7.138110E-05 -1.125946E-04
      6.550001  3.079453E-01  1.359619E-04  9.007183E-02 -6.219607E-04 -4.641779E-03 -6.879962E-05 -2.019297E-05
      6.600001  3.074341E-01  1.273187E-04  8.839303E-02 -6.373490E-04 -4.401980E-03 -6.603838E-05  6.935908E-05
      6.650000  3.069153E-01  1.181537E-04  8.675101E-02 -6.522695E-04 -4.150874E-03 -6.303498E-05  1.558889E-04
      6.700000  3.064041E-01  1.085687E-04  8.515581E-02 -6.667658E-04 -3.890686E-03 -5.985442E-05  2.392252E-04
      6.750000  3.058853E-01  9.848726E-05  8.360358E-02 -6.807423E-04 -3.620108E-03 -5.644346E-05  3.191826E-04
      6.800000  3.053589E-01  8.796735E-05  8.209878E-02 -6.941960E-04 -3.340139E-03 -5.283424E-05  3.955580E-04
      6.850000  3.048325E-01  7.701646E-05  8.064301E-02 -7.070934E-04 -3.050990E-03 -4.902797E-05  4.681039E-04
      6.900001  3.042908E-01  6.565252E-05  7.923804E-02 -7.194060E-04 -2.753013E-03 -4.503204E-05  5.365398E-04
      6.950000  3.037567E-01  5.389497E-05  7.788558E-02 -7.311062E-04 -2.446571E-03 -4.085481E-05  6.005610E-04
      7.000000  3.032227E-01  4.176474E-05  7.658722E-02 -7.421673E-04 -2.132049E-03 -3.650544E-05  6.598309E-04
      7.050001  3.026657E-01  2.928308E-05  7.534470E-02 -7.525332E-04 -1.809639E-03 -3.198880E-05  7.139570E-04
      7.100001  3.021164E-01  1.650488E-05  7.416188E-02 -7.622748E-04 -1.482022E-03 -2.735484E-05  7.625613E-04
      7.150000  3.015671E-01  3.403344E-06  7.303481E-02 -7.712450E-04 -1.146030E-03 -2.255560E-05  8.052652E-04
      7.200000  3.010101E-01 -9.945637E-06  7.196908E-02 -7.795263E-04 -8.054347E-04 -1.765861E-05  8.416859E-04
      7.250000  3.004608E-01 -2.355764E-05  7.096159E-02 -7.870220E-04 -4.580517E-04 -1.263305E-05  8.714811E-04
      7.300000  2.998962E-01 -3.738773E-05  7.001483E-02 -7.937342E-04 -1.054682E-04 -7.509857E-06  8.943544E-04
      7.350000  2.993317E-01 -5.141176E-05  6.912917E-02 -7.996351E-04  2.520188E-04 -2.299281E-06  9.100746E-04
      7.400001  2.987595E-01 -6.560159E-05  6.830513E-02 -8.047008E-04  6.139007E-04  2.984990E-06  9.185186E-04
      7.450001  2.981873E-01 -7.992859E-05  6.754312E-02 -8.089076E-04  9.796697E-04  8.329089E-06  9.196054E-04
      7.500000  2.976151E-01 -9.436408E-05  6.684340E-02 -8.122316E-04  1.348804E-03  1.371909E-05  9.134149E-04
      7.550001  2.970352E-01 -1.088765E-04  6.620749E-02 -8.146148E-04  1.721062E-03  1.914688E-05  9.001221E-04
      7.600001  2.964554E-01 -1.234550E-04  6.563491E-02 -8.161233E-04  2.093062E-03  2.457915E-05  8.800177E-04
      7.650000  2.958755E-01 -1.380342E-04  6.512467E-02 -8.166266E-04  2.468791E-03  3.002414E-05  8.535241E-04
      7.700000  2.952957E-01 -1.526170E-04  6.467744E-02 -8.161945E-04  2.843542E-03  3.544836E-05  8.211620E-04
      7.750000  2.947083E-01 -1.671478E-04  6.429143E-02 -8.147432E-04  3.220067E-03  4.085158E-05  7.835849E-04
      7.800000  2.941284E-01 -1.816105E-04  6.396691E-02 -8.122690E-04  3.596416E-03  4.621704E-05  7.414943E-04
      7.850000  2.935333E-01 -1.959753E-04  6.370317E-02 -8.087457E-04  3.972254E-03  5.153312E-05  6.957045E-04
      7.900001  2.929535E-01 -2.102143E-04  6.349951E-02 -8.041488E-04  4.346998E-03  5.678817E-05  6.470516E-04
      7.950001  2.923584E-01 -2.243006E-04  6.335510E-02 -7.984562E-04  4.720072E-03  6.197084E-05  5.964147E-04
      8.000001  2.917709E-01 -2.382072E-04  6.326904E-02 -7.916444E-04  5.090890E-03  6.707050E-05  5.446607E-04
      8.050001  2.911758E-01 -2.518929E-04  6.324240E-02 -7.836914E-04  5.459176E-03  7.207151E-05  4.926446E-04
      8.100000  2.905884E-01 -2.653951E-04  6.327074E-02 -7.746113E-04  5.821317E-03  7.697663E-05  4.411550E-04
      8.150001  2.899933E-01 -2.785932E-04  6.335614E-02 -7.643267E-04  6.181603E-03  8.175930E-05  3.909218E-04
      8.200001  2.893982E-01 -2.915497E-04  6.349455E-02 -7.528758E-04  6.535006E-03  8.642620E-05  3.425604E-04
      8.250000  2.888031E-01 -3.041746E-04  6.368583E-02 -7.401985E-04  6.884509E-03  9.095866E-05  2.965801E-04
      8.300000  2.882080E-01 -3.164721E-04  6.392816E-02 -7.263016E-04  7.228047E-03  9.535344E-05  2.533554E-04
      8.350000  2.876205E-01 -3.284153E-04  6.421996E-02 -7.111718E-04  7.565299E-03  9.960280E-05  2.131198E-04
      8.400001  2.870331E-01 -3.399820E-04  6.455956E-02 -6.948013E-04  7.895697E-03  1.037001E-04  1.759594E-04
      8.450001  2.864380E-01 -3.511517E-04  6.494522E-02 -6.771862E-04  8.218676E-03  1.076393E-04  1.418210E-04
      8.500001  2.858505E-01 -3.619039E-04  6.537508E-02 -6.583256E-04  8.533681E-03  1.114147E-04  1.104947E-04
      8.550001  2.852554E-01 -3.722094E-04  6.584981E-02 -6.382417E-04  8.840461E-03  1.150110E-04  8.165033E-05
      8.600000  2.846680E-01 -3.820960E-04  6.636179E-02 -6.169377E-04  9.135620E-03  1.184453E-04  5.484241E-05
      8.650001  2.840729E-01 -3.914790E-04  6.691601E-02 -5.944037E-04  9.423243E-03  1.216860E-04  2.952290E-05
      8.700001  2.834854E-01 -4.004045E-04  6.750444E-02 -5.706771E-04  9.698632E-03  1.247524E-04  5.064580E-06
      8.750000  2.829056E-01 -4.088107E-04  6.812882E-02 -5.457481E-04  9.964647E-03  1.276258E-04 -1.920794E-05
      8.800000  2.823181E-01 -4.167024E-04  6.878565E-02 -5.196551E-04  1.021941E-02  1.303077E-04 -4.399506E-05
      8.850000  2.817383E-01 -4.240641E-04  6.947296E-02 -4.924235E-04  1.046268E-02  1.327941E-04 -7.000414E-05
      8.900001  2.811584E-01 -4.308841E-04  7.018856E-02 -4.640853E-04  1.069402E-02  1.350820E-04 -9.791754E-05
      8.950001  2.805862E-01 -4.371530E-04  7.093022E-02 -4.346773E-04  1.091299E-02  1.371688E-04 -1.283695E-04
      9.000001  2.800140E-01 -4.428623E-04  7.169568E-02 -4.042404E-04  1.111917E-02  1.390522E-04 -1.619307E-04
      9.050001  2.794342E-01 -4.480193E-04  7.248518E-02 -3.728353E-04  1.131239E-02  1.407293E-04 -1.990804E-04
      9.100000  2.788620E-01 -4.525939E-04  7.328957E-02 -3.404790E-04  1.148998E-02  1.422044E-04 -2.402033E-04
      9.150001  2.782974E-01 -4.566107E-04  7.411580E-02 -3.072592E-04  1.165530E-02  1.434655E-04 -2.855647E-04
      9.200001  2.777328E-01 -4.600450E-04  7.495362E-02 -2.732007E-04  1.180466E-02  1.445217E-04 -3.353198E-04
      9.250000  2.771683E-01 -4.629099E-04  7.580631E-02 -2.383800E-04  1.194045E-02  1.453646E-04 -3.894918E-04
      9.300000  2.766113E-01 -4.652038E-04  7.666956E-02 -2.028520E-04  1.206127E-02  1.459984E-04 -4.479954E-04
      9.350000  2.760544E-01 -4.669316E-04  7.754146E-02 -1.666823E-04  1.216705E-02  1.464233E-04 -5.106217E-04
      9.400001  2.755051E-01 -4.680992E-04  7.841978E-02 -1.299357E-04  1.225756E-02  1.466411E-04 -5.770398E-04
      9.450001  2.749481E-01 -4.687148E-04  7.930237E-02 -9.267921E-05  1.233258E-02  1.466539E-04 -6.468329E-04
      9.500001  2.744064E-01 -4.687890E-04  8.018703E-02 -5.498230E-05  1.239193E-02  1.464649E-04 -7.194747E-04
      9.550001  2.738647E-01 -4.683722E-04  8.107375E-02 -1.693328E-05  1.243556E-02  1.460877E-04 -7.943715E-04
      9.600000  2.733231E-01 -4.673713E-04  8.195340E-02  2.149070E-05  1.246189E-02  1.455125E-04 -8.708330E-04
      9.650001  2.727890E-01 -4.659441E-04  8.283374E-02  6.008472E-05  1.247315E-02  1.447555E-04 -9.481275E-04
      9.700001  2.722549E-01 -4.639834E-04  8.370419E-02  9.890443E-05  1.246714E-02  1.438142E-04 -1.025458E-03
      9.750000  2.717209E-01 -4.615945E-04  8.456894E-02  1.377901E-04  1.244553E-02  1.426979E-04 -1.101974E-03
      9.800000  2.711945E-01 -4.587680E-04  8.542369E-02  1.767134E-04  1.240756E-02  1.414157E-04 -1.176779E-03
      9.850000  2.706757E-01 -4.555325E-04  8.626693E-02  2.156050E-04  1.235337E-02  1.399769E-04 -1.248958E-03
      9.900001  2.701569E-01 -4.519144E-04  8.709686E-02  2.544032E-04  1.228296E-02  1.383920E-04 -1.317517E-03
      9.950001  2.696457E-01 -4.479406E-04  8.791169E-02  2.930502E-04  1.219639E-02  1.366726E-04 -1.381463E-03
     10.000001  2.691269E-01 -4.436410E-04  8.870971E-02  3.314905E-04  1.209371E-02  1.348315E-04 -1.439743E-03
     10.050001  2.686234E-01 -4.390844E-04  8.949085E-02  3.696455E-04  1.197506E-02  1.328911E-04 -1.491284E-03
     10.100000  2.681198E-01 -4.341541E-04  9.024727E-02  4.076020E-04  1.184005E-02  1.308465E-04 -1.534977E-03
     10.150001  2.676163E-01 -4.291008E-04  9.098641E-02  4.451169E-04  1.168961E-02  1.287378E-04 -1.569677E-03
     10.200001  2.671280E-01 -4.237629E-04  9.169891E-02  4.823341E-04  1.152322E-02  1.265609E-04 -1.594231E-03
     10.250001  2.666245E-01 -4.183226E-04  9.238923E-02  5.190814E-04  1.134164E-02  1.243479E-04 -1.607472E-03
     10.300001  2.661362E-01 -4.127585E-04  9.305381E-02  5.553864E-04  1.114488E-02  1.221136E-04 -1.608229E-03
     10.350000  2.656479E-01 -4.071185E-04  9.369175E-02  5.912167E-04  1.093321E-02  1.198795E-04 -1.595388E-03
     10.400001  2.651672E-01 -4.014422E-04  9.430192E-02  6.265541E-04  1.070691E-02  1.176676E-04 -1.567861E-03
     10.450000  2.646942E-01 -3.957686E-04  9.488322E-02  6.613876E-04  1.046629E-02  1.155006E-04 -1.524648E-03
     10.500000  2.642212E-01 -3.901381E-04  9.543465E-02  6.957102E-04  1.021165E-02  1.134024E-04 -1.464886E-03
     10.550000  2.637405E-01 -3.845864E-04  9.595627E-02  7.294937E-04  9.943328E-03  1.113871E-04 -1.387858E-03
     10.600000  2.632751E-01 -3.790521E-04  9.644251E-02  7.628627E-04  9.662072E-03  1.094817E-04 -1.293051E-03
     10.650001  2.628098E-01 -3.737704E-04  9.689946E-02  7.956530E-04  9.367524E-03  1.077268E-04 -1.180205E-03
     10.700001  2.623444E-01 -3.685982E-04  9.732036E-02  8.280432E-04  9.060783E-03  1.061341E-04 -1.049325E-03
     10.750001  2.618790E-01 -3.637346E-04  9.770919E-02  8.599348E-04  8.741701E-03  1.047504E-04 -9.007824E-04
     10.800000  2.614288E-01 -3.591463E-04  9.806365E-02  8.914083E-04  8.410994E-03  1.035935E-04 -7.352825E-04
     10.850000  2.609711E-01 -3.548838E-04  9.838358E-02  9.224897E-04  8.069083E-03  1.026938E-04 -5.539742E-04
     10.900001  2.605209E-01 -3.509834E-04  9.866865E-02  9.532207E-04  7.716461E-03  1.020798E-04 -3.583895E-04
     10.950001  2.600708E-01 -3.474790E-04  9.891859E-02  9.836471E-04  7.353630E-03  1.017798E-04 -1.505285E-04
     11.000001  2.596283E-01 -3.444031E-04  9.913322E-02  1.013820E-03  6.981110E-03  1.018224E-04  6.717284E-05
     11.050001  2.591782E-01 -3.417265E-04  9.931272E-02  1.043742E-03  6.599355E-03  1.022003E-04  2.918541E-04
     11.100001  2.587357E-01 -3.394726E-04  9.945439E-02  1.073590E-03  6.210097E-03  1.029789E-04  5.202411E-04
     11.150002  2.582932E-01 -3.377624E-04  9.956220E-02  1.103282E-03  5.811819E-03  1.041689E-04  7.487179E-04
     11.200001  2.578506E-01 -3.365178E-04  9.963269E-02  1.133010E-03  5.406986E-03  1.058055E-04  9.733402E-04
     11.250001  2.574234E-01 -3.358773E-04  9.966876E-02  1.162761E-03  4.994616E-03  1.079264E-04  1.189959E-03
     11.300001  2.569809E-01 -3.357939E-04  9.966961E-02  1.192634E-03  4.575973E-03  1.105445E-04  1.394269E-03
     11.350000  2.565536E-01 -3.362907E-04  9.963568E-02  1.222699E-03  4.151545E-03  1.136848E-04  1.581925E-03
     11.400001  2.561188E-01 -3.373754E-04  9.956738E-02  1.253027E-03  3.721932E-03  1.173685E-04  1.748653E-03
     11.450000  2.556763E-01 -3.390500E-04  9.946511E-02  1.283692E-03  3.287751E-03  1.216146E-04  1.890371E-03
     11.500000  2.552490E-01 -3.413139E-04  9.932940E-02  1.314766E-03  2.849613E-03  1.264404E-04  2.003301E-03
     11.550000  2.548218E-01 -3.440994E-04  9.916066E-02  1.346267E-03  2.408074E-03  1.318258E-04  2.084109E-03
     11.600000  2.543945E-01 -3.474422E-04  9.895871E-02  1.378368E-03  1.965397E-03  1.378353E-04  2.130018E-03
     11.650001  2.539597E-01 -3.513243E-04  9.872531E-02  1.411014E-03  1.519299E-03  1.444343E-04  2.138886E-03
     11.700001  2.535324E-01 -3.557193E-04  9.846013E-02  1.444371E-03  1.073050E-03  1.516675E-04  2.109396E-03
     11.750001  2.530975E-01 -3.606449E-04  9.816473E-02  1.478437E-03  6.250570E-04  1.595295E-04  2.041034E-03
     11.800001  2.526779E-01 -3.660480E-04  9.783964E-02  1.513289E-03  1.768930E-04  1.680240E-04  1.934257E-03
     11.850000  2.522430E-01 -3.719041E-04  9.748574E-02  1.548975E-03 -2.709921E-04  1.771528E-04  1.790438E-03
     11.900001  2.518158E-01 -3.781775E-04  9.710395E-02  1.585541E-03 -7.179829E-04  1.869138E-04  1.611972E-03
     11.950001  2.513809E-01 -3.848298E-04  9.669524E-02  1.623027E-03 -1.163472E-03  1.973027E-04  1.402205E-03
     12.000001  2.509460E-01 -3.918184E-04  9.626058E-02  1.661468E-03 -1.606855E-03  2.083120E-04  1.165434E-03
     12.050001  2.505188E-01 -3.990743E-04  9.580056E-02  1.700936E-03 -2.047543E-03  2.199253E-04  9.068173E-04
     12.100001  2.500839E-01 -4.066422E-04  9.531718E-02  1.741436E-03 -2.483155E-03  2.321841E-04  6.323061E-04
     12.150002  2.496490E-01 -4.143037E-04  9.480999E-02  1.782938E-03 -2.916319E-03  2.449734E-04  3.485031E-04
     12.200001  2.492142E-01 -4.221603E-04  9.428143E-02  1.825492E-03 -3.343520E-03  2.583682E-04  6.251615E-05
     12.250001  2.487793E-01 -4.300335E-04  9.373165E-02  1.869038E-03 -3.766671E-03  2.722724E-04 -2.181670E-04
     12.300001  2.483368E-01 -4.379272E-04  9.316226E-02  1.913604E-03 -4.184145E-03  2.866999E-04 -4.859130E-04
     12.350000  2.478867E-01 -4.457748E-04  9.257440E-02  1.959174E-03 -4.595584E-03  3.016210E-04 -7.330796E-04
     12.400001  2.474518E-01 -4.535210E-04  9.196931E-02  2.005730E-03 -5.000450E-03  3.170108E-04 -9.522540E-04
     12.450001  2.470093E-01 -4.611091E-04  9.134825E-02  2.053248E-03 -5.398218E-03  3.328423E-04 -1.136429E-03
     12.500000  2.465515E-01 -4.684828E-04  9.071250E-02  2.101699E-03 -5.788377E-03  3.490870E-04 -1.279148E-03
     12.550000  2.461014E-01 -4.755675E-04  9.006258E-02  2.151201E-03 -6.170433E-03  3.657303E-04 -1.374771E-03
     12.600000  2.456436E-01 -4.825756E-04  8.940233E-02  2.201588E-03 -6.542127E-03  3.828479E-04 -1.418564E-03
     12.650001  2.451859E-01 -4.889413E-04  8.872919E-02  2.252825E-03 -6.906135E-03  4.001757E-04 -1.406834E-03
     12.700001  2.447281E-01 -4.950919E-04  8.804785E-02  2.304864E-03 -7.259127E-03  4.179004E-04 -1.337050E-03
     12.750001  2.442703E-01 -5.005652E-04  8.735704E-02  2.357572E-03 -7.603087E-03  4.357900E-04 -1.207937E-03
     12.800001  2.438049E-01 -5.055041E-04  8.665916E-02  2.410942E-03 -7.936557E-03  4.539041E-04 -1.019478E-03
     12.850000  2.433319E-01 -5.098251E-04  8.595530E-02  2.464904E-03 -8.259318E-03  4.721907E-04 -7.729222E-04
     12.900001  2.428589E-01 -5.134851E-04  8.524679E-02  2.519394E-03 -8.570986E-03  4.906163E-04 -4.707937E-04
     12.950001  2.423706E-01 -5.164422E-04  8.453492E-02  2.574344E-03 -8.871194E-03  5.091462E-04 -1.167664E-04
     13.000001  2.418976E-01 -5.186546E-04  8.382099E-02  2.629687E-03 -9.159598E-03  5.277455E-04  2.844000E-04
     13.050001  2.414246E-01 -5.200473E-04  8.310536E-02  2.685458E-03 -9.435875E-03  5.463900E-04  7.270047E-04